
Host: al-X1yoga

Timers On : Thu Jul 27 14:43:33 2017
Timers Off: Thu Jul 27 14:43:33 2017

Wall Time:        0.22 seconds


-----------------------------------------------------------

***********************************************************

Host: al-X1yoga

Timers On : Thu Jul 27 14:45:02 2017
Timers Off: Thu Jul 27 14:45:02 2017

Wall Time:        0.85 seconds


-----------------------------------------------------------

***********************************************************
