
Host: vus-MacBook-Pro.local

Timers On : Wed Jul 26 16:14:50 2017
Timers Off: Wed Jul 26 16:14:54 2017

Wall Time:        3.82 seconds


-----------------------------------------------------------

***********************************************************

Host: vus-MacBook-Pro.local

Timers On : Wed Jul 26 16:16:37 2017
Timers Off: Wed Jul 26 16:16:41 2017

Wall Time:        3.63 seconds


-----------------------------------------------------------

***********************************************************

Host: vus-MacBook-Pro.local

Timers On : Wed Jul 26 16:17:22 2017
Timers Off: Wed Jul 26 16:17:24 2017

Wall Time:        1.30 seconds


-----------------------------------------------------------

***********************************************************

Host: vus-MacBook-Pro.local

Timers On : Wed Jul 26 16:18:08 2017
Timers Off: Wed Jul 26 16:18:09 2017

Wall Time:        1.23 seconds


-----------------------------------------------------------

***********************************************************

Host: vus-MacBook-Pro.local

Timers On : Wed Jul 26 16:19:34 2017
Timers Off: Wed Jul 26 16:19:37 2017

Wall Time:        3.61 seconds


-----------------------------------------------------------

***********************************************************

Host: vus-MacBook-Pro.local

Timers On : Wed Jul 26 16:20:22 2017
Timers Off: Wed Jul 26 16:20:23 2017

Wall Time:        1.24 seconds


-----------------------------------------------------------

***********************************************************

Host: vus-MacBook-Pro.local

Timers On : Wed Jul 26 16:34:19 2017
Timers Off: Wed Jul 26 16:34:24 2017

Wall Time:        4.83 seconds


-----------------------------------------------------------

***********************************************************

Host: vus-MacBook-Pro.local

Timers On : Thu Jul 27 09:00:52 2017
Timers Off: Thu Jul 27 09:00:54 2017

Wall Time:        1.97 seconds


-----------------------------------------------------------

***********************************************************

Host: vus-MacBook-Pro.local

Timers On : Thu Jul 27 09:12:13 2017
Timers Off: Thu Jul 27 09:12:15 2017

Wall Time:        1.93 seconds


-----------------------------------------------------------

***********************************************************

Host: vus-MacBook-Pro.local

Timers On : Thu Jul 27 09:45:27 2017
Timers Off: Thu Jul 27 09:45:28 2017

Wall Time:        1.93 seconds


-----------------------------------------------------------

***********************************************************

Host: vus-MacBook-Pro.local

Timers On : Thu Jul 27 09:50:48 2017
Timers Off: Thu Jul 27 09:50:50 2017

Wall Time:        1.85 seconds


-----------------------------------------------------------

***********************************************************

Host: vus-MacBook-Pro.local

Timers On : Thu Jul 27 10:39:15 2017
Timers Off: Thu Jul 27 10:39:17 2017

Wall Time:        1.82 seconds


-----------------------------------------------------------

***********************************************************

Host: vus-MacBook-Pro.local

Timers On : Thu Jul 27 15:12:15 2017
Timers Off: Thu Jul 27 15:12:17 2017

Wall Time:        1.90 seconds


-----------------------------------------------------------

***********************************************************

Host: vus-MacBook-Pro.local

Timers On : Thu Jul 27 15:20:45 2017
Timers Off: Thu Jul 27 15:20:47 2017

Wall Time:        1.76 seconds


-----------------------------------------------------------

***********************************************************

Host: vus-MacBook-Pro.local

Timers On : Thu Jul 27 15:21:53 2017
Timers Off: Thu Jul 27 15:21:55 2017

Wall Time:        1.50 seconds


-----------------------------------------------------------

***********************************************************

Host: vus-MacBook-Pro.local

Timers On : Thu Jul 27 15:24:16 2017
Timers Off: Thu Jul 27 15:24:18 2017

Wall Time:        2.03 seconds


-----------------------------------------------------------

***********************************************************
