
Host: vus-MacBook-Pro.local

Timers On : Wed Jul 26 16:14:50 2017
Timers Off: Wed Jul 26 16:14:54 2017

Wall Time:        3.82 seconds


-----------------------------------------------------------

***********************************************************

Host: vus-MacBook-Pro.local

Timers On : Wed Jul 26 16:16:37 2017
Timers Off: Wed Jul 26 16:16:41 2017

Wall Time:        3.63 seconds


-----------------------------------------------------------

***********************************************************

Host: vus-MacBook-Pro.local

Timers On : Wed Jul 26 16:17:22 2017
Timers Off: Wed Jul 26 16:17:24 2017

Wall Time:        1.30 seconds


-----------------------------------------------------------

***********************************************************

Host: vus-MacBook-Pro.local

Timers On : Wed Jul 26 16:18:08 2017
Timers Off: Wed Jul 26 16:18:09 2017

Wall Time:        1.23 seconds


-----------------------------------------------------------

***********************************************************

Host: vus-MacBook-Pro.local

Timers On : Wed Jul 26 16:19:34 2017
Timers Off: Wed Jul 26 16:19:37 2017

Wall Time:        3.61 seconds


-----------------------------------------------------------

***********************************************************

Host: vus-MacBook-Pro.local

Timers On : Wed Jul 26 16:20:22 2017
Timers Off: Wed Jul 26 16:20:23 2017

Wall Time:        1.24 seconds


-----------------------------------------------------------

***********************************************************

Host: vus-MacBook-Pro.local

Timers On : Wed Jul 26 16:34:19 2017
Timers Off: Wed Jul 26 16:34:24 2017

Wall Time:        4.83 seconds


-----------------------------------------------------------

***********************************************************
